{"name":"Chemical Compound","id":"\/chemistry\/chemical_compound","type":"\/type\/type","group":"type","_id":"EmINNzv5","relation":"\/chemistry","properties":[{"name":"Solubility","id":"\/chemistry\/chemical_compound\/solubility","expected_type":"\/chemistry\/solubility_relationship","description":"Is this substance soluble, insoluble, or fully miscible in another substance."},{"name":"Vapor pressure","id":"\/chemistry\/chemical_compound\/vapor_pressure","expected_type":"\/type\/float","description":"The vapor pressure of this substance at 20 \u00b0C."},{"name":"Density","id":"\/chemistry\/chemical_compound\/density","expected_type":"\/type\/float","description":"The density of this substance at 25 \u00b0C and 100 kPa."},{"name":"InChI Key","id":"\/chemistry\/chemical_compound\/inchikey","expected_type":"\/type\/enumeration","description":""},{"name":"Classifications","id":"\/chemistry\/chemical_compound\/classifications","expected_type":"\/chemistry\/chemical_classification","description":"Chemical classifications that include this compound."},{"name":"Structure (InChI)","id":"\/chemistry\/chemical_compound\/structure_inchi","expected_type":"\/type\/rawstring","description":""},{"name":"Molar Entropy, Gas","id":"\/chemistry\/chemical_compound\/molar_entropy_gas","expected_type":"\/type\/float","description":""},{"name":"Enthalpy Change of Formation, Gas","id":"\/chemistry\/chemical_compound\/enthalpy_change_of_formation_gas","expected_type":"\/type\/float","description":""},{"name":"Molar Entropy, Liquid","id":"\/chemistry\/chemical_compound\/molar_entropy_liquid","expected_type":"\/type\/float","description":""},{"name":"Enthalpy Change of Formation, Liquid","id":"\/chemistry\/chemical_compound\/enthalpy_change_of_formation_liquid","expected_type":"\/type\/float","description":""},{"name":"Molar Entropy, Solid","id":"\/chemistry\/chemical_compound\/molar_entropy_solid","expected_type":"\/type\/float","description":""},{"name":"Enthalpy Change of Formation, Solid","id":"\/chemistry\/chemical_compound\/enthalpy_change_of_formation_solid","expected_type":"\/type\/float","description":""},{"name":"Entropy Change of Vaporization","id":"\/chemistry\/chemical_compound\/entropy_change_of_vaporization","expected_type":"\/type\/float","description":""},{"name":"Enthalpy Change of Vaporization","id":"\/chemistry\/chemical_compound\/enthalpy_change_of_vaporization","expected_type":"\/type\/float","description":""},{"name":"Entropy Change of Fusion","id":"\/chemistry\/chemical_compound\/entropy_change_of_fusion","expected_type":"\/type\/float","description":""},{"name":"Enthalpy Change of Fusion","id":"\/chemistry\/chemical_compound\/enthalpy_change_of_fusion","expected_type":"\/type\/float","description":""},{"name":"Average Molar Mass","id":"\/chemistry\/chemical_compound\/average_molar_mass","expected_type":"\/type\/float","description":""},{"name":"PubChem ID","id":"\/chemistry\/chemical_compound\/pubchem_id","expected_type":"\/type\/enumeration","description":"ID of the compound in the PubChem compound database."},{"name":"IUPAC ID","id":"\/chemistry\/chemical_compound\/iuapc_id","expected_type":"\/type\/rawstring","description":"The name of the chemical according to IUPAC recommendations."},{"name":"CAS ID","id":"\/chemistry\/chemical_compound\/cas_id","expected_type":"\/type\/rawstring","description":"DEPRECATED. All values now to be written as keys in the \/authority\/acs\/cas namespace."},{"name":"Structure (SMILES)","id":"\/chemistry\/chemical_compound\/structure_smiles","expected_type":"\/type\/rawstring","description":""},{"name":"Heat Capacity, Gas","id":"\/chemistry\/chemical_compound\/heat_capacity_gas","expected_type":"\/type\/float","description":""},{"name":"Heat Capacity, Liquid","id":"\/chemistry\/chemical_compound\/heat_capacity_liquid","expected_type":"\/type\/float","description":""},{"name":"Heat Capacity, Solid","id":"\/chemistry\/chemical_compound\/heat_capacity_solid","expected_type":"\/type\/float","description":""},{"name":"Triple point pressure","id":"\/chemistry\/chemical_compound\/triple_point_pressure","expected_type":"\/type\/float","description":""},{"name":"Triple point temperature","id":"\/chemistry\/chemical_compound\/triple_point_temperature","expected_type":"\/type\/float","description":""},{"name":"Critical point pressure","id":"\/chemistry\/chemical_compound\/critical_point_pressure","expected_type":"\/type\/float","description":""},{"name":"Critical point temperature","id":"\/chemistry\/chemical_compound\/critical_point_temperature","expected_type":"\/type\/float","description":""},{"name":"Boiling point","id":"\/chemistry\/chemical_compound\/boiling_point","expected_type":"\/type\/float","description":""},{"name":"Melting point","id":"\/chemistry\/chemical_compound\/melting_point","expected_type":"\/type\/float","description":""},{"name":"Phase, At STP","id":"\/chemistry\/chemical_compound\/phase_at_stp","expected_type":"\/chemistry\/phase_of_matter","description":""},{"name":"Formula","id":"\/chemistry\/chemical_compound\/formula","expected_type":"\/type\/rawstring","description":"The molecular formula of this compound. For polymers, use the notation \"(C6H10O5)n\"."}],"included_types":[{"name":"Topic","id":"\/common\/topic"}]}